# vtk DataFile Version 2.0
Most Useless DEM (tm) output file
ASCII
DATASET POLYDATA
POINTS 570 float
2.16345 -2.91618 3.24634
2.39391 -2.98411 3.75094
2.82653 -2.23173 1.05887
-1.31712 -3.21968 0.377765
-1.58356 -2.49294 0.375052
3.35773 3.66005 3.97169
3.17735 3.74156 -2.7391
1.60607 3.76474 3.84888
3.17596 -3.12111 -0.116995
2.10962 2.40224 -1.62376
-2.56445 -3.96173 -0.62591
-2.70543 3.32588 1.11811
2.07134 3.02745 3.67594
0.0260953 1.24593 2.38343
-3.24131 -1.10965 2.79303
-1.95973 3.47195 1.45088
1.21844 -0.810092 2.06192
1.63674 1.94506 -0.201931
-0.73437 -0.623299 1.24382
-2.22193 -2.63051 -1.58469
1.47054 2.37824 -3.74534
-1.26757 -1.78462 2.97943
-3.09137 -2.80709 -3.22295
3.3634 2.58766 2.57523
1.32817 -2.99854 -1.4632
1.88741 3.60178 -0.0752877
-3.2616 1.30884 -0.490045
-2.57411 -0.947532 -2.31833
1.82673 -3.59027 2.3616
-3.28255 -2.50502 -0.730151
-0.0731154 -0.336087 -0.43531
-0.0894799 1.1705 2.3518
1.47211 3.367 2.03749
2.20039 -1.7918 1.64619
1.22804 -3.97745 1.24078
1.46315 -2.69911 1.15169
-2.62248 -0.351737 -0.0130876
1.87596 3.67795 0.590037
-1.08796 3.01406 0.682142
2.15678 -2.2095 -3.85781
1.74322 2.56997 -1.95924
2.20765 0.0476564 3.52059
1.43051 -0.698668 3.12723
-0.542107 3.67433 0.647653
0.323915 -2.73554 -2.891
1.86228 -2.80565 -2.15875
-1.65535 2.47788 2.72574
3.38421 -1.96574 -1.34041
2.17752 -1.60135 -2.0518
-3.42493 3.43411 -2.2621
-1.03465 3.25892 -2.42724
2.40573 -1.99133 3.64014
0.801027 2.23118 -0.213689
3.41714 -1.18672 -3.45924
2.33006 2.34878 0.682113
0.66447 0.397789 1.86239
2.89441 1.56186 -1.71329
1.2822 2.0576 -0.861436
1.80948 0.49246 -0.956433
-2.06665 0.542573 0.218972
-2.93406 -0.766332 -3.5684
-1.01315 0.24638 0.742591
2.00645 -1.14924 3.47209
3.28888 -2.96075 -2.76449
0.487907 -0.840734 -0.244875
-0.772139 -3.90478 1.81564
-1.16971 -0.891442 -2.70254
3.05245 2.35428 -0.511059
-1.35192 2.90143 0.228265
0.818734 -2.67481 -3.04362
0.700679 -0.224346 -1.89623
-1.09789 1.23263 0.238736
1.30976 1.72881 1.98521
3.49188 -0.395667 1.76395
-2.9437 3.30062 -2.16818
0.0379094 3.3067 0.46615
-2.37075 0.0255202 2.60654
-0.262822 0.306739 0.372736
3.56533 -0.419325 -3.3746
2.45796 -0.458574 0.833852
-2.76307 -0.0116465 3.69518
3.4313 -3.96293 -3.72546
1.9374 3.81602 2.53843
-0.973554 2.94956 1.43616
-2.86481 -1.23013 -0.801739
2.55501 -1.92104 -3.63952
2.06505 1.28096 -0.548689
1.79593 3.28518 -2.93603
-2.26692 3.85888 -1.88958
-2.84729 -2.83569 -1.73861
-2.54901 2.41689 2.95434
-2.9642 0.637637 1.01907
0.350107 -3.93525 -2.84036
1.26291 2.82425 0.271465
0.847243 -0.490665 -1.19238
-2.06781 0.105996 -2.89599
-0.679121 -0.941337 -3.39227
1.79277 -2.08067 -3.67623
-2.59839 -1.97635 -2.52874
0.0328101 -2.08038 2.58084
-0.586543 3.85378 -3.60276
2.23756 3.22173 -1.58538
3.08154 -3.61645 -0.0730872
-1.81521 -0.0859789 0.352449
-1.1259 3.10181 3.20043
-1.07996 -1.04603 -3.73385
-2.77405 -2.69702 2.24202
2.61982 -0.882089 -2.31759
-1.84753 -1.81798 -0.768703
-0.053039 -3.22836 -2.21264
-2.57643 -0.077588 3.5364
3.13476 3.64908 1.21575
0.512629 2.06003 -3.52176
-0.45137 -2.12176 0.42305
-1.03727 -3.57478 2.56955
-1.21568 -3.87677 -0.760149
-3.18325 3.26747 -2.64808
2.12585 1.19292 -1.93363
1.64766 -2.96123 1.18197
-0.0479992 -0.39261 -0.971997
0.324338 1.74776 -1.62943
-1.4581 1.95754 0.987485
-2.20779 2.49499 1.4942
-1.28838 -2.53191 -0.914316
-0.920294 -1.24856 1.00495
2.1548 2.24182 1.35428
-2.89876 -0.964649 3.43509
-0.291972 2.2057 -1.57109
-0.0903933 3.28452 -0.513131
-0.0800258 -0.42573 2.04632
-1.31998 -3.1355 0.0680693
-0.741425 0.0861725 2.96149
2.2174 -1.11311 2.35865
2.97688 1.15455 0.350444
-0.867281 -2.87885 2.49264
-2.06947 0.262605 3.5914
-1.06585 3.92088 3.51201
-1.84752 3.00754 -3.86784
0.355959 -0.891079 0.979801
1.92317 0.696358 -0.186895
-2.00597 0.321104 -1.59003
-3.27675 -0.232613 3.20147
-1.91307 -2.44404 2.75447
2.72786 -2.44189 -0.470212
-1.88409 -2.81737 -2.63434
-1.84434 -2.17869 2.39723
-0.456706 -0.21588 -1.51118
-2.95105 3.38704 1.1564
-0.476565 1.06451 -2.52147
0.60022 3.23905 1.81324
3.38703 -1.16289 -0.48904
1.23345 -3.11105 1.65857
-1.72291 -2.70137 -0.730241
-2.51279 0.759169 -0.403551
-1.68819 -3.66357 0.822745
2.02743 1.68973 -2.65955
-1.93486 2.64971 -3.06066
-1.20573 -1.62659 1.24624
-1.27049 -0.63848 -0.606666
1.9184 0.0628663 -3.09446
-2.92598 3.94828 -1.90014
-2.28406 2.40812 2.10345
-3.23316 -1.87263 3.43083
-1.76098 1.84265 -3.19409
-0.0793487 -1.24538 0.6282
-1.52035 -2.10173 3.74912
-0.28724 -2.28982 3.70471
0.731633 0.374446 -2.18759
0.144424 -2.48076 -2.14724
-0.681313 -0.0888181 -0.693675
0.879048 -2.63878 1.43308
-1.39218 -0.835878 1.09175
-0.914305 -2.78741 3.90386
1.8963 -3.69809 3.07175
2.65708 3.67377 3.30629
-3.36167 2.36947 0.662771
-2.8282 2.13483 -1.90503
-1.22552 -1.31715 -2.96747
1.25322 -1.66431 -2.90757
2.42597 1.76982 -2.15388
-2.81938 0.0157951 1.23006
-3.50791 -0.0466085 -3.89969
2.00315 -1.70731 1.7203
-2.83274 3.22976 -0.921958
2.73164 -1.15721 -1.3267
1.53163 1.58997 -3.47644
-2.08159 0.110873 -3.75567
-0.53652 1.95259 1.51841
0.000153157 -1.96846 -0.160623
-0.671047 3.23778 -1.88419
0.785331 3.474 0.941331
-0.196121 2.87554 0.88733
2.13002 -0.0927849 0.613772
0.102247 -2.53662 -2.03985
-1.82366 -1.33596 3.0921
0.0166431 -3.77061 0.768463
-0.0726619 -1.51875 -2.65658
3.19895 3.82945 -2.1408
1.50272 1.97523 0.00377302
-1.25018 -0.231293 -1.45414
-3.14218 3.61978 1.45578
0.23711 -3.66055 2.97444
-2.94943 3.47682 0.173199
1.17407 -3.22616 -1.68248
2.25106 -3.4758 2.54038
-1.83788 1.77952 1.63779
-2.44695 -2.43914 1.27684
-0.540727 0.14876 3.48844
3.37408 -2.86226 1.19193
1.02406 2.40264 -0.218143
-0.321531 -0.504537 -0.540868
-1.79263 2.60251 0.0473553
-2.9552 3.25555 -2.93463
-2.99154 -2.61289 1.71123
-0.756714 0.937639 2.65104
-2.1727 2.42692 -0.824146
-3.04344 -1.77869 -0.805938
2.47574 0.215007 3.27149
-0.574145 0.938233 1.25488
-2.17192 1.02379 0.12019
-1.46023 2.59705 -0.546791
-0.972322 -3.8761 2.52894
3.46903 -1.65289 -2.66265
-2.24106 -3.15027 -0.0576833
-0.906964 -2.4374 -2.41505
2.54935 -0.0824989 -2.36642
-1.09701 0.930178 3.61304
2.63754 3.36266 -0.860247
-3.19346 3.57262 1.90286
-2.33269 -1.84704 3.77502
-0.530094 0.511719 0.382967
0.690059 3.5419 -2.95023
-0.57453 0.534219 3.86442
0.379648 -1.58836 -1.51608
1.36778 -3.03481 1.33071
1.66952 0.313012 -2.05821
1.42016 2.58287 1.33222
-2.15707 -2.57494 -1.49858
-2.61243 3.0538 3.99264
1.21223 -2.63103 1.91438
-3.34533 -3.49965 0.489598
-2.57928 3.05493 -3.28038
1.15297 -3.93348 -2.47653
-0.296078 -1.04867 1.07443
-0.2827 0.238104 3.8531
-0.0153109 -2.74876 -1.31362
2.44956 -1.97741 1.15812
-1.81346 -0.989822 -2.6147
-2.12431 0.767848 -0.573976
1.60067 -0.143824 3.02058
-2.59977 1.65728 0.71606
-1.83759 -2.1905 -0.176034
-0.826845 -3.85431 0.663891
1.74653 -1.98555 1.23779
-1.47532 -3.37546 0.936727
-0.18674 -1.87775 3.9718
2.30179 0.25678 3.86131
2.86874 1.84199 2.18321
-1.07412 -2.36992 0.672555
2.82369 -3.13785 -1.0015
2.8553 2.78471 3.03723
-1.19578 2.54208 -1.38611
-1.6356 1.27368 0.75485
0.620092 -3.8199 -3.60813
-0.532696 2.15973 -1.49825
-0.0561434 -2.70812 -0.0945279
-2.27899 -0.566987 -0.616914
-0.753945 -3.24617 2.21163
0.703635 3.79804 -0.232606
1.76114 1.56759 1.07602
1.42831 -3.42256 1.10825
0.917427 -3.73117 0.231365
-2.95466 -1.63066 -1.4432
-1.25222 0.246914 1.04896
1.0762 3.95604 -0.739046
0.111517 2.55985 1.79563
1.52416 -2.0354 3.74919
-1.20662 0.250671 1.98887
-1.24881 1.46373 -3.15497
1.25583 0.887669 -3.36926
1.91225 -0.32851 -0.612377
1.38434 -3.27341 -3.45692
-1.6233 -3.44688 -2.77075
0.189963 -1.75196 -1.90361
-0.422976 -0.132999 0.217142
-2.62873 -0.340605 -3.24447
2.62561 -3.03695 0.144417
3.35689 3.54898 2.05025
0.969372 -1.85459 3.66155
1.58493 -2.07434 -0.6739
1.26273 -0.202253 -1.68748
-3.06525 1.37447 0.909953
1.38628 -0.0750465 -3.45606
2.90567 -1.96168 3.48171
-1.9733 3.34621 1.34266
-1.39261 2.75514 2.32081
-1.10843 -2.19018 2.24416
-0.35724 1.40266 0.0808713
-3.5043 -2.15494 0.817364
1.45582 -0.90583 3.87562
2.92571 1.24171 -3.99079
-1.54753 -0.300407 -0.247875
-0.543184 -3.97599 -0.312669
-0.368101 2.16128 3.76755
-1.2141 -1.56269 2.27791
-2.01682 -0.229143 -2.01932
-3.16707 2.45161 -2.593
-0.0978667 1.77406 -0.739985
-0.185695 -2.27497 -2.77823
0.285824 -1.271 1.78419
0.752186 -1.73045 -2.46604
0.299279 1.90741 2.0474
-1.81675 -1.34418 3.33939
2.06554 -1.84751 2.85658
1.81601 -3.88087 -2.4907
2.71864 -1.70001 0.744696
-2.88359 -3.31026 0.609675
3.05345 1.46691 3.30976
0.333398 3.84605 -0.594169
2.8541 1.15554 3.59772
1.01678 3.47618 1.43213
-3.36751 1.08629 2.22235
3.13585 -3.79233 -2.32852
0.625322 1.67425 1.19825
-1.87364 -1.37411 -3.04483
-2.7578 0.858432 -3.00582
-0.350953 3.79132 -0.330196
0.232707 1.29556 1.2984
1.93563 1.66606 -1.19826
-3.06654 1.29608 -2.35236
-0.599232 -0.532563 2.73543
-3.42355 2.66333 -3.4459
-1.66185 -1.25551 0.907686
-1.28022 0.657993 3.94194
0.277742 -1.84749 2.95953
2.47776 -1.88177 -1.15511
-1.26801 1.97415 -3.04628
2.37847 3.51864 -2.26289
1.04449 3.71962 -0.164294
1.49084 1.11454 3.86134
0.317757 2.07919 1.17849
-2.14069 0.351087 -1.17928
1.56031 -2.4296 0.179962
2.38383 3.94964 3.62076
-1.93312 2.13896 -3.15361
2.55948 -3.12242 -0.35469
-3.13945 -1.33853 -0.76336
2.38068 -0.413017 0.43447
-0.963814 -3.03308 2.10804
-1.96769 1.02317 -0.070086
1.93987 -0.722762 3.46283
1.78449 3.78193 -1.14349
-2.13743 2.17429 -2.88901
3.41734 1.57013 2.76929
-2.80561 2.67697 0.203235
-0.949302 0.242754 -3.59499
2.50664 3.80449 -0.121173
2.39904 -0.852349 2.95568
1.20338 -3.39601 1.93006
-3.29609 0.16042 0.911454
-1.06315 1.88544 -2.80002
0.798599 0.688737 1.30104
-1.68436 3.61012 -3.64437
-1.65866 2.03947 3.35509
-1.77533 -3.05283 -0.460782
-1.29931 1.50237 2.97692
-1.00292 -2.13085 1.89072
2.11798 -0.84234 0.452254
1.27021 3.54874 1.63238
0.026202 -0.461557 1.33133
-3.42378 -2.77627 -1.35314
3.33424 -0.605524 1.07014
-1.62019 -2.5708 -2.42357
-3.00759 2.57377 -0.0402018
-0.487029 2.28784 3.10217
-0.242781 -0.870536 3.06425
1.85364 1.17895 -0.825668
2.79538 2.46811 -3.95221
1.82828 1.54849 -0.980836
0.599732 -2.27185 -3.15711
1.98297 3.92256 3.59443
-1.89454 -1.37948 -1.33674
1.17996 1.51506 -0.49084
3.26619 2.668 -2.18721
1.8834 3.39393 -2.66197
2.57193 2.89584 -0.546044
3.44167 -0.232901 0.115388
0.435 3.07425 2.70092
0.618056 -2.81353 -2.76198
0.960697 -2.4011 3.96475
-0.658523 1.11515 1.98965
-0.432854 2.60467 -3.77289
2.02875 -3.33479 -1.45181
0.213863 0.272513 2.25601
-2.86858 1.89316 -3.10635
-2.12299 -2.90966 -1.90538
1.22787 -0.382042 -0.0385838
-0.282037 -2.48232 1.3891
-0.0343703 -2.58438 -2.81913
-2.1331 -3.56021 -3.22811
2.43474 -1.409 0.484476
-2.30194 3.43687 -3.80213
1.38622 2.64514 0.662328
-1.82293 2.52318 -2.86372
2.60586 -2.75646 3.91129
-1.40257 -3.99582 -3.73142
2.55327 -0.725685 0.900532
1.93102 3.9196 -0.453025
0.195413 -3.86009 -0.163813
-1.45751 2.41078 3.61117
-1.85731 -2.62948 -0.0152456
-2.88315 3.20682 -1.80871
0.511401 -2.38909 2.76143
1.82077 1.90912 2.40704
0.600184 0.688673 -2.02612
-0.0211723 1.33133 0.727786
-2.89522 0.550332 1.00768
-2.16908 1.28756 3.21325
1.60026 -3.8043 3.12602
-1.65157 3.85843 2.26012
1.91465 0.797617 0.651572
0.392606 3.4265 -3.22774
0.567 3.4143 -3.86414
-0.730833 -3.03312 -3.68078
2.54319 0.680934 -0.125628
-0.593603 2.75885 -2.96373
-2.06549 0.871512 0.418331
-3.16649 1.03907 2.78637
-3.21161 -0.383489 0.917707
-0.102586 -1.10071 -3.46043
-3.20827 -2.23195 -0.0834401
1.01395 -2.45992 3.80665
-2.67974 3.59474 -2.35605
1.68862 -2.82788 -0.633171
-2.21745 1.48587 -3.65878
1.32292 1.08158 -2.14987
-1.55069 3.9582 0.308773
-0.443129 1.5613 1.95034
-0.00621063 -1.2956 0.286408
-0.961069 -0.438535 3.91907
-2.66089 1.80063 -0.0771417
2.41792 2.82399 -0.815717
2.55417 2.81357 -1.83765
-2.27979 -2.33231 3.57915
0.456671 -1.19283 1.12249
-0.799722 -0.663768 -0.80216
-2.09524 1.74693 3.58346
2.34008 -3.34343 3.60699
-2.69618 -3.48815 -2.86367
1.13676 -2.66832 -2.58951
0.823499 -1.03234 0.589678
-2.34048 -3.58338 -3.09438
3.02895 -2.77941 1.82929
-0.723843 1.90273 -0.828199
-3.12408 -3.77628 2.88352
-0.34563 3.47524 -3.21165
3.43767 3.32814 2.87151
-0.24033 2.28447 1.99303
0.0941304 1.83463 -2.57918
1.68877 -0.811284 1.25239
-2.54859 -2.27357 -3.75288
-3.1486 3.51313 -3.53041
-1.40976 -0.628745 -1.63573
2.22973 -1.33651 -1.46545
-0.229168 3.07273 1.18559
-0.625432 -3.79817 -2.38746
2.36653 -3.796 0.47226
-3.09257 2.8328 1.41117
-1.08178 -3.3514 -0.431787
-1.17152 -3.56608 -1.04336
-2.30966 2.37486 1.30246
-2.28725 -1.35337 -3.25832
2.82181 -3.52308 -3.05476
-1.47838 3.90734 1.72789
0.282773 -0.0516652 1.65534
2.8488 3.99593 -0.763576
-1.49149 -3.46099 -0.68382
-0.860735 -0.28128 2.78863
1.84687 -1.08234 2.54563
-2.55702 -3.19823 -0.626404
-2.30655 2.9517 -1.12292
3.38117 -3.54636 0.26954
0.155279 -0.843469 -1.31321
-1.1955 -2.59465 -3.65575
-2.00233 2.85212 3.24123
-2.20157 1.40313 -1.33347
-0.22666 -0.549085 3.29706
-1.22393 -3.16791 -1.97928
1.6767 -2.94748 1.89014
-2.90826 0.494891 3.61715
-2.18155 -1.76364 0.777691
0.559595 -1.6005 -1.17592
-2.56281 -1.4643 -2.29919
1.95441 3.15953 -1.03856
-2.98637 -2.46811 -2.06011
-3.46554 -3.56996 -0.861804
-0.41407 3.25339 -3.89373
3.31964 3.17753 1.67139
-2.12839 1.10362 -3.25304
0.861241 -1.54106 3.40076
-0.299457 3.04598 -3.18664
-3.34347 3.96312 1.76324
-1.17221 0.728615 -1.62123
-3.15293 -3.50364 1.11023
-1.41059 -1.62823 -3.62919
-0.252476 0.0434251 3.58347
1.85805 0.41546 1.04856
0.0240065 -3.28087 -2.93331
-2.93582 1.705 2.21792
2.99044 3.24108 3.22839
0.234728 1.09034 -3.12677
-1.12707 2.60647 1.30923
-1.12171 1.27688 -1.64822
-1.62538 1.97051 1.13824
-3.44811 -0.56597 -3.61242
2.09899 1.34333 -1.34253
0.729762 1.68405 0.20882
1.10145 1.83768 -2.07476
1.41032 3.35294 2.25102
0.715678 -1.69618 -0.934036
1.38332 2.241 0.453359
-0.0341996 -0.827834 3.08048
-3.00132 -0.816099 2.2414
-1.51365 -1.29933 -2.05979
0.73723 -3.98807 1.93003
-0.755333 -3.16149 -2.38402
-2.5607 2.1766 0.396321
0.755603 -0.118165 2.23246
2.79601 -0.00486236 2.39168
-0.796094 1.87473 2.64585
-3.18341 -2.97634 -3.41692
-1.76959 -3.29178 0.0252208
2.1081 -2.97431 3.54407
3.42183 1.46972 1.81495
-2.54897 -2.21281 1.7818
1.29323 -3.11717 -0.410336
-2.73316 1.37647 1.12574
2.80872 -1.36949 2.7101
1.06307 -2.30488 1.99305
3.20607 0.665486 3.02313
1.71798 1.67256 -2.12138
3.29462 1.87966 -0.616725
3.26525 2.69821 2.93544
-2.92784 -3.31012 1.38741
-0.935255 -3.21304 -1.04641
1.42095 1.48023 -2.27239
0.674659 2.22264 2.31491
-2.97063 -1.05878 -0.757591
-2.03252 -2.34008 -3.30667
-2.97138 2.17547 0.15346
-2.01275 3.8279 -0.893827
-2.35276 0.414228 3.3478
-1.85494 -1.56198 1.13552
0.570906 -0.124157 2.75102
-2.46018 -0.895422 2.25546
-3.41444 -3.19515 -3.92064
-1.42516 -2.41302 -2.10102
-0.764858 0.246978 -2.42784
-2.90889 2.68207 -0.757477
1.95662 -3.16123 -3.38237
-2.78682 -1.66864 2.27542
-1.57847 -1.66744 0.973648
0.714626 3.36937 3.71538
-1.90123 -0.54012 -1.72164
1.36326 -3.32293 2.06479
-1.22237 -0.538861 -3.58321
1.08974 0.887075 -3.12196
0.313765 3.47008 -1.21677
-2.13718 0.215733 -1.87057
3.54612 2.38264 2.84199
VERTICES 570 1140
1 0
1 1
1 2
1 3
1 4
1 5
1 6
1 7
1 8
1 9
1 10
1 11
1 12
1 13
1 14
1 15
1 16
1 17
1 18
1 19
1 20
1 21
1 22
1 23
1 24
1 25
1 26
1 27
1 28
1 29
1 30
1 31
1 32
1 33
1 34
1 35
1 36
1 37
1 38
1 39
1 40
1 41
1 42
1 43
1 44
1 45
1 46
1 47
1 48
1 49
1 50
1 51
1 52
1 53
1 54
1 55
1 56
1 57
1 58
1 59
1 60
1 61
1 62
1 63
1 64
1 65
1 66
1 67
1 68
1 69
1 70
1 71
1 72
1 73
1 74
1 75
1 76
1 77
1 78
1 79
1 80
1 81
1 82
1 83
1 84
1 85
1 86
1 87
1 88
1 89
1 90
1 91
1 92
1 93
1 94
1 95
1 96
1 97
1 98
1 99
1 100
1 101
1 102
1 103
1 104
1 105
1 106
1 107
1 108
1 109
1 110
1 111
1 112
1 113
1 114
1 115
1 116
1 117
1 118
1 119
1 120
1 121
1 122
1 123
1 124
1 125
1 126
1 127
1 128
1 129
1 130
1 131
1 132
1 133
1 134
1 135
1 136
1 137
1 138
1 139
1 140
1 141
1 142
1 143
1 144
1 145
1 146
1 147
1 148
1 149
1 150
1 151
1 152
1 153
1 154
1 155
1 156
1 157
1 158
1 159
1 160
1 161
1 162
1 163
1 164
1 165
1 166
1 167
1 168
1 169
1 170
1 171
1 172
1 173
1 174
1 175
1 176
1 177
1 178
1 179
1 180
1 181
1 182
1 183
1 184
1 185
1 186
1 187
1 188
1 189
1 190
1 191
1 192
1 193
1 194
1 195
1 196
1 197
1 198
1 199
1 200
1 201
1 202
1 203
1 204
1 205
1 206
1 207
1 208
1 209
1 210
1 211
1 212
1 213
1 214
1 215
1 216
1 217
1 218
1 219
1 220
1 221
1 222
1 223
1 224
1 225
1 226
1 227
1 228
1 229
1 230
1 231
1 232
1 233
1 234
1 235
1 236
1 237
1 238
1 239
1 240
1 241
1 242
1 243
1 244
1 245
1 246
1 247
1 248
1 249
1 250
1 251
1 252
1 253
1 254
1 255
1 256
1 257
1 258
1 259
1 260
1 261
1 262
1 263
1 264
1 265
1 266
1 267
1 268
1 269
1 270
1 271
1 272
1 273
1 274
1 275
1 276
1 277
1 278
1 279
1 280
1 281
1 282
1 283
1 284
1 285
1 286
1 287
1 288
1 289
1 290
1 291
1 292
1 293
1 294
1 295
1 296
1 297
1 298
1 299
1 300
1 301
1 302
1 303
1 304
1 305
1 306
1 307
1 308
1 309
1 310
1 311
1 312
1 313
1 314
1 315
1 316
1 317
1 318
1 319
1 320
1 321
1 322
1 323
1 324
1 325
1 326
1 327
1 328
1 329
1 330
1 331
1 332
1 333
1 334
1 335
1 336
1 337
1 338
1 339
1 340
1 341
1 342
1 343
1 344
1 345
1 346
1 347
1 348
1 349
1 350
1 351
1 352
1 353
1 354
1 355
1 356
1 357
1 358
1 359
1 360
1 361
1 362
1 363
1 364
1 365
1 366
1 367
1 368
1 369
1 370
1 371
1 372
1 373
1 374
1 375
1 376
1 377
1 378
1 379
1 380
1 381
1 382
1 383
1 384
1 385
1 386
1 387
1 388
1 389
1 390
1 391
1 392
1 393
1 394
1 395
1 396
1 397
1 398
1 399
1 400
1 401
1 402
1 403
1 404
1 405
1 406
1 407
1 408
1 409
1 410
1 411
1 412
1 413
1 414
1 415
1 416
1 417
1 418
1 419
1 420
1 421
1 422
1 423
1 424
1 425
1 426
1 427
1 428
1 429
1 430
1 431
1 432
1 433
1 434
1 435
1 436
1 437
1 438
1 439
1 440
1 441
1 442
1 443
1 444
1 445
1 446
1 447
1 448
1 449
1 450
1 451
1 452
1 453
1 454
1 455
1 456
1 457
1 458
1 459
1 460
1 461
1 462
1 463
1 464
1 465
1 466
1 467
1 468
1 469
1 470
1 471
1 472
1 473
1 474
1 475
1 476
1 477
1 478
1 479
1 480
1 481
1 482
1 483
1 484
1 485
1 486
1 487
1 488
1 489
1 490
1 491
1 492
1 493
1 494
1 495
1 496
1 497
1 498
1 499
1 500
1 501
1 502
1 503
1 504
1 505
1 506
1 507
1 508
1 509
1 510
1 511
1 512
1 513
1 514
1 515
1 516
1 517
1 518
1 519
1 520
1 521
1 522
1 523
1 524
1 525
1 526
1 527
1 528
1 529
1 530
1 531
1 532
1 533
1 534
1 535
1 536
1 537
1 538
1 539
1 540
1 541
1 542
1 543
1 544
1 545
1 546
1 547
1 548
1 549
1 550
1 551
1 552
1 553
1 554
1 555
1 556
1 557
1 558
1 559
1 560
1 561
1 562
1 563
1 564
1 565
1 566
1 567
1 568
1 569

POINT_DATA 570

SCALARS RadiusProjected float 1 
LOOKUP_TABLE default
0.562945 0.427095 0.581158 0.567002 0.425397 0.593774 0.582675 0.444207 0.526472 0.461633 0.419508 0.509444 0.4557 0.437676 0.509376 0.598576 0.591501 0.599292 0.592978 0.593539 0.431523 0.545168 0.594119 0.596222 0.591433 0.421972 0.497075 0.559621 0.560056 0.459406 0.428377 0.400957 0.484352 0.422493 0.583147 0.527953 0.558441 0.575686 0.591899 0.500733 0.531148 0.559586 0.407142 0.472259 0.569826 0.442385 0.586799 0.536272 0.535747 0.479748 0.551548 0.548129 0.548626 0.494952 0.478445 0.484418 0.531096 0.434773 0.434237 0.460383 0.541209 0.559456 0.406367 0.46331 0.455385 0.574486 0.409234 0.429823 0.419426 0.598814 0.564692 0.564381 0.538966 0.425037 0.46342 0.55275 0.590044 0.498118 0.406889 0.532721 0.487749 0.425179 0.476312 0.442042 0.553103 0.410243 0.55904 0.407288 0.437375 0.481746 0.497953 0.491598 0.489117 0.497514 0.529263 0.558795 0.541873 0.584175 0.550937 0.561506 0.455205 0.541155 0.535941 0.400564 0.53102 0.542141 0.432522 0.528792 0.4238 0.491207 0.499673 0.554783 0.591949 0.514751 0.468077 0.575351 0.517054 0.561635 0.444762 0.403555 0.550253 0.564249 0.451019 0.564168 0.501191 0.588015 0.539815 0.482533 0.578181 0.484633 0.591858 0.516191 0.509443 0.431612 0.427725 0.552346 0.429859 0.446031 0.451502 0.561947 0.568143 0.597704 0.450856 0.46649 0.562857 0.459966 0.448705 0.402708 0.585853 0.443448 0.469997 0.581473 0.439319 0.569694 0.450217 0.591004 0.523209 0.55578 0.494658 0.597492 0.470332 0.413519 0.566166 0.55872 0.517053 0.518901 0.509945 0.54656 0.583439 0.539047 0.457168 0.535964 0.55144 0.478464 0.550746 0.512312 0.476089 0.441614 0.513564 0.505474 0.415171 0.480842 0.41079 0.470552 0.506159 0.518565 0.555833 0.471269 0.586802 0.592993 0.425981 0.430888 0.513765 0.478982 0.493878 0.477459 0.40238 0.545391 0.467425 0.477714 0.432436 0.585499 0.558857 0.487224 0.462243 0.572536 0.505707 0.524072 0.43313 0.423909 0.520396 0.494391 0.452594 0.468044 0.530816 0.505968 0.537843 0.54322 0.54963 0.597676 0.490108 0.544099 0.416764 0.582515 0.445795 0.5011 0.582667 0.511654 0.430476 0.500638 0.565163 0.492495 0.507668 0.509318 0.599227 0.489517 0.415635 0.57089 0.488536 0.520846 0.421331 0.499709 0.59238 0.595985 0.400927 0.406863 0.554982 0.5954 0.563461 0.472637 0.573739 0.535904 0.416887 0.469247 0.479957 0.571175 0.451974 0.409012 0.560014 0.532024 0.486283 0.549988 0.58213 0.426599 0.436369 0.596472 0.452761 0.419071 0.429108 0.456535 0.427214 0.560422 0.573858 0.415511 0.515941 0.525477 0.509972 0.401619 0.428991 0.536057 0.570606 0.506787 0.524411 0.487733 0.47019 0.43991 0.50265 0.4276 0.480362 0.476467 0.415193 0.552484 0.447983 0.408094 0.424664 0.450591 0.436782 0.500954 0.447991 0.564521 0.483453 0.596345 0.409931 0.564691 0.580543 0.460365 0.588957 0.409589 0.498173 0.44957 0.497851 0.508811 0.467544 0.577545 0.580011 0.468768 0.473849 0.406654 0.422241 0.432574 0.55605 0.575473 0.477948 0.44206 0.448338 0.454551 0.480782 0.498488 0.419291 0.444684 0.426395 0.49806 0.58841 0.590989 0.591227 0.530394 0.515042 0.551501 0.411956 0.487049 0.446956 0.510576 0.470632 0.41063 0.564239 0.464502 0.403081 0.480996 0.408605 0.581687 0.433798 0.561827 0.529823 0.451659 0.546344 0.425969 0.529549 0.498665 0.490185 0.4757 0.509402 0.543694 0.459264 0.457561 0.548939 0.524687 0.437791 0.562375 0.537355 0.462502 0.436702 0.477142 0.473697 0.468786 0.525124 0.563154 0.556045 0.533857 0.416225 0.475884 0.585877 0.491699 0.555143 0.460723 0.497358 0.582113 0.487172 0.497724 0.489357 0.551158 0.46127 0.421612 0.501702 0.478718 0.502154 0.574037 0.563526 0.472172 0.558966 0.583424 0.528864 0.508761 0.475722 0.428029 0.562316 0.439975 0.506565 0.589785 0.470145 0.598022 0.5878 0.448015 0.575189 0.403304 0.510031 0.477723 0.524495 0.555938 0.517409 0.495328 0.441548 0.508028 0.460249 0.40369 0.494185 0.580037 0.446098 0.438899 0.568862 0.5772 0.438953 0.488245 0.445184 0.429566 0.434142 0.447901 0.445533 0.559931 0.48714 0.494603 0.46222 0.417965 0.584676 0.52891 0.486041 0.526613 0.436963 0.516876 0.580976 0.545331 0.59595 0.470928 0.487774 0.536081 0.422224 0.541464 0.451613 0.432466 0.481744 0.426747 0.518979 0.489911 0.452442 0.408411 0.520569 0.559473 0.542243 0.433511 0.444349 0.566243 0.423484 0.464993 0.459335 0.531156 0.463756 0.484038 0.484833 0.556382 0.501572 0.422639 0.417103 0.598707 0.452496 0.436315 0.560203 0.552586 0.405844 0.453184 0.585771 0.448828 0.546066 0.420148 0.497722 0.468866 0.515705 0.456325 0.447457 0.593728 0.49177 0.442755 0.592618 0.521186 0.509361 0.44531 0.504227 0.437981 0.446319 0.480314 0.49778 0.482658 0.524812 0.43403 0.535827 0.45981 0.479103 0.527294 0.473487 0.430315 0.597596 0.553849 0.407548 0.576794 0.577034 0.591844 0.582657 0.403613 0.559237 0.516569 0.419742 0.553371 0.452374 0.46556 0.467071 0.425813 0.535946 0.458392 0.427311 0.569422 0.544245 0.446153 0.421352 0.500395 0.530751 0.40032 0.498835 0.402508 0.55581 0.457317 0.543007 0.41974 0.580744 0.476951 0.578184 0.47107 0.466833 0.543994 0.539749 0.413089 0.439562 0.502772 0.406108 0.484796 0.548815 0.53796 0.500004 0.450789 0.495984 0.480304 0.580944 0.452895 